Executable      : siesta
Version         : 5.0.1
Architecture    : x86_64
Compiler version: GNU-12.4.0
Compiler flags  : -march=nocona -mtune=haswell -ftree-vectorize -fPIC -fstack-protector-strong -fno-plt -O2 -ffunction-sections -pipe -isystem <prefix>/include -fdebug-prefix-map=<prefix>/work=/usr/local/src/conda/siesta-5.0.1 -fdebug-prefix-map=<prefix>=/usr/local/src/conda-prefix -I<prefix>/lib -fallow-argument-mismatch -O3
Parallelisations: none
NetCDF support
NetCDF-4 support
Lua support
DFT-D3 support

Runtime information:
* Directory : /home/santiago/Documents/ICN2/29.08/sisl_playground/graphene_uc_simple
* Running in serial mode.
>> Start of run:   5-SEP-2024  16:07:59

                           *********************** 
                           *  WELCOME TO SIESTA  * 
                           *********************** 

 NOTE: Siesta V5 introduces some new defaults for basis-set generation
 NOTE: which might lead to slightly different numerical results.
 NOTE: Please see the manual for full details and compatibility measures.


reinit: Reading from file RUN.fdf

reinit: -----------------------------------------------------------------------
reinit: System Name: graphene
reinit: -----------------------------------------------------------------------
reinit: System Label: graphene
reinit: -----------------------------------------------------------------------

initatom: Reading input for the pseudopotentials and atomic orbitals ----------
Species number:   1 Atomic number:    6 Label: C

Ground state valence configuration (from tables):   2s02  2p02  3d00  4f00

---- Processing specs for species: C
Reading pseudopotential information in formatted form from:
  C.psf

---- Pseudopotential check for C 

Pseudopotential generated from a fully relativistic atomic calculation
There are spin-orbit semi-local pseudopotentials available

Pseudized shells:
2s( 2.00) rc: 1.25
2p( 2.00) rc: 1.25
3d( 0.00) rc: 1.25
4f( 0.00) rc: 1.25
Valence configuration for ps generation: (assumed as above)
For C, standard SIESTA heuristics set lmxkb to 3
 (one more than the basis l, including polarization orbitals).
Use PS.lmax or PS.KBprojectors blocks to override.

<basis_specs>
===============================================================================
C                    Z=   6    Mass=  12.011        Charge= 0.17977+309
Lmxo=2 Lmxkb= 3    BasisType=split      Semic=F
L=0  Nsemic=0  Cnfigmx=2
          i=1  nzeta=1  polorb=0  (2s)
            splnorm:   0.15000    
               vcte:    40.000    
               rinn:  -0.90000    
               qcoe:    0.0000    
               qyuk:    0.0000    
               qwid:   0.10000E-01
                rcs:    0.0000    
            lambdas:    1.0000    
L=1  Nsemic=0  Cnfigmx=2
          i=1  nzeta=1  polorb=1  (2p)  (to be polarized perturbatively)
            splnorm:   0.15000    
               vcte:    40.000    
               rinn:  -0.90000    
               qcoe:    0.0000    
               qyuk:    0.0000    
               qwid:   0.10000E-01
                rcs:    0.0000    
            lambdas:    1.0000    
L=2  Nsemic=0  Cnfigmx=3
          i=1  nzeta=0  polorb=0  (3d)  (perturbative polarization orbital) (from 2p)
-------------------------------------------------------------------------------
L=0  Nkbl=1  erefs: 0.17977+309
L=1  Nkbl=1  erefs: 0.17977+309
L=2  Nkbl=1  erefs: 0.17977+309
L=3  Nkbl=1  erefs: 0.17977+309
===============================================================================
</basis_specs>

Using PAO.SplitTailNorm
atom: Called for C                     (Z =   6)
Maximum radius (at nrval) set to   50.00000 8518

read_vps: Pseudopotential generation method:
read_vps: ATM3.3    Troullier-Martins                       
Valence charge in pseudo generation:    4.00000

xc_check: Exchange-correlation functional:
xc_check: GGA Perdew, Burke & Ernzerhof 1996
V l=0 = -2*Zval/r beyond r=  1.5424
V l=1 = -2*Zval/r beyond r=  1.5424
V l=2 = -2*Zval/r beyond r=  1.5424
V l=3 = -2*Zval/r beyond r=  1.5424
All V_l potentials equal beyond r=  1.2384
This should be close to max(r_c) in ps generation
All pots = -2*Zval/r beyond r=  1.5424
Using small-core scheme (local charge) for Vlocal

VLOCAL_FROM_CHLOCAL: 99.0% of the norm of Vloc inside     28.306 Ry
VLOCAL_FROM_CHLOCAL: 99.9% of the norm of Vloc inside     64.509 Ry
atom: Maximum radius for chlocal:    1.48456
atom: Maximum radius for r*vlocal+2*Zval:    1.35592

KBgen: Kleinman-Bylander projectors: 
GHOST: No ghost state for L =  0
   l= 0   rc=  1.731645   el= -1.010225   Ekb=  7.764447   kbcos=  0.281850
GHOST: No ghost state for L =  1
   l= 1   rc=  1.759735   el= -0.388560   Ekb= -4.798921   kbcos= -0.280140
GHOST: No ghost state for L =  2
   l= 2   rc=  1.967493   el=  0.012917   Ekb= -1.303820   kbcos= -0.005376
GHOST: No ghost state for L =  3
   l= 3   rc=  2.048196   el=  0.019225   Ekb= -0.653443   kbcos= -0.000487

KBgen: Total number of Kleinman-Bylander projectors:  16
atom: -------------------------------------------------------------------------

atom: SANKEY-TYPE ORBITALS:

SPLIT: Orbitals with angular momentum L= 0

SPLIT: Basis orbitals for state 2s

SPLIT: PAO cut-off radius determined from an
SPLIT: energy shift=  0.014700 Ry
Split based on tail norm

   izeta = 1
                 lambda =    1.000000
                     rc =    4.273754
                 energy =   -0.993831
                kinetic =    0.933434
    potential(screened) =   -1.927265
       potential(ionic) =   -5.529424

SPLIT: Orbitals with angular momentum L= 1

SPLIT: Basis orbitals for state 2p

SPLIT: PAO cut-off radius determined from an
SPLIT: energy shift=  0.014700 Ry
Split based on tail norm

   izeta = 1
                 lambda =    1.000000
                     rc =    5.118585
                 energy =   -0.372264
                kinetic =    2.570317
    potential(screened) =   -2.942581
       potential(ionic) =   -6.437481

POLgen: Perturbative polarization orbital with L=  2

POLgen: Polarization orbital for state 2p
Split based on tail norm

   izeta = 1
                     rc =    5.118585
                 energy =    1.255047
                kinetic =    2.514043
    potential(screened) =   -1.258996
       potential(ionic) =   -4.187494
atom: Total number of Sankey-type orbitals:  9

atm_pop: Valence configuration (for local Pseudopot. screening):
 2s( 2.00)                                                            
 2p( 2.00)                                                            
 3d( 0.00)                                                            
Vna: chval, zval:    4.00000   4.00000

Vna:  Cut-off radius for the neutral-atom potential:   5.118585

atom: _________________________________________________________________________

prinput: Basis input 

PAO.BasisType split     

%block ChemicalSpeciesLabel
    1    6 C                       # Species index, atomic number, species label
%endblock ChemicalSpeciesLabel

%block PAO.Basis                 # Define Basis set
# WARNING: This information might be incomplete!
C                     2                    # Species label, number of l-shells
 n=2   0   1                         # n, l, Nzeta 
   4.274   
   1.000   
 n=2   1   1 P   1                   # n, l, Nzeta, Polarization, NzetaPol
   5.119   
   1.000   
%endblock PAO.Basis

prinput: ----------------------------------------------------------------------

Dumping basis to NetCDF file C.ion.nc
coor:   Atomic-coordinates input format  =     Cartesian coordinates
coor:                                          (in Angstroms)

siesta: Atomic coordinates (Bohr) and species
siesta:      0.00000   0.00000   0.00000  1        1
siesta:      2.68341   0.00000   0.00000  1        2

siesta: System type = slab      

initatomlists: Number of atoms, orbitals, and projectors:      2    18    32

siesta: ******************** Simulation parameters ****************************
siesta:
siesta: The following are some of the parameters of the simulation.
siesta: A complete list of the parameters used, including default values,
siesta: can be found in file out.fdf
siesta:
redata: Spin configuration                          = none
redata: Number of spin components                   = 1
redata: Time-Reversal Symmetry                      = T
redata: Spin spiral                                 = F
redata: Long output                                 =   F
redata: Number of Atomic Species                    =        1
redata: Charge density info will appear in .RHO file
redata: Write Mulliken Pop.                         = Atomic and Orbital charges
redata: Matel table size (NRTAB)                    =     1024
redata: Mesh Cutoff                                 =   500.0000 Ry
redata: Net charge of the system                    =     0.0000 |e|
redata: Min. number of SCF Iter                     =        0
redata: Max. number of SCF Iter                     =     1000
redata: SCF convergence failure will abort job
redata: SCF mix quantity                            = Hamiltonian
redata: Mix DM or H after convergence               =   F
redata: Recompute H after scf cycle                 =   F
redata: Mix DM in first SCF step                    =   F
redata: Write Pulay info on disk                    =   F
redata: New DM Occupancy tolerance                  = 0.000000000001
redata: Kick with linear mixing every               =       25 iterations
redata: DM Mixing Weight for Kicks                  =     0.5000
redata: Require Harris convergence for SCF          =   F
redata: Harris energy tolerance for SCF             =     0.000100 eV
redata: Require DM convergence for SCF              =   T
redata: DM tolerance for SCF                        =     0.000100
redata: Require EDM convergence for SCF             =   F
redata: EDM tolerance for SCF                       =     0.001000 eV
redata: Require H convergence for SCF               =   T
redata: Hamiltonian tolerance for SCF               =     0.001000 eV
redata: Require (free) Energy convergence for SCF   =   F
redata: (free) Energy tolerance for SCF             =     0.000100 eV
redata: Using DFT-D3 dispersion                     =   F
redata: Using Saved Data (generic)                  =   F
redata: Use continuation files for DM               =   T
redata: Neglect nonoverlap interactions             =   F
redata: Method of Calculation                       = Diagonalization
redata: Electronic Temperature                      =    11.6045 K
redata: Fix the spin of the system                  =   F
redata: Max. number of TDED Iter                    =        1
redata: Number of TDED substeps                     =        3
redata: Dynamics option                             = Single-point calculation
mix.SCF: Pulay mixing                            = Pulay
mix.SCF:    Variant                              = stable
mix.SCF:    History steps                        = 8
mix.SCF:    Linear mixing weight                 =     0.005000
mix.SCF:    Mixing weight                        =     0.005000
mix.SCF:    SVD condition                        = 0.1000E-07
mix.SCF:    Restart steps                        = 24
mix.SCF:    Restart save steps                   = 1
mix.SCF:    Number of mixing iterations          = 24
mix.SCF:    Following mixer                      = Linear-Kick
mix.SCF: Linear mixing                           = Linear-Kick
mix.SCF:    Mixing weight                        =     0.500000
mix.SCF:    Number of mixing iterations          = 1
mix.SCF:    Following mixer                      = Pulay
redata: Save all siesta data in one NC              =   F
redata: ***********************************************************************

%block SCF.Mixers
  Pulay
  Linear-Kick
%endblock SCF.Mixers

%block SCF.Mixer.Pulay
  # Mixing method
  method pulay
  variant stable

  # Mixing options
  weight 0.0050
  weight.linear 0.0050
  history 8
  restart 24
  restart.save 1

  # Continuation options
  iterations 24
  next Linear-Kick
%endblock SCF.Mixer.Pulay

%block SCF.Mixer.Linear-Kick
  # Mixing method
  method linear

  # Mixing options
  weight 0.5000

  # Continuation options
  iterations 1
  next Pulay
%endblock SCF.Mixer.Linear-Kick

DM_history_depth set to one: no extrapolation allowed by default for geometry relaxation
Size of DM history Fstack: 1
Total number of electrons:     8.000000
Total ionic charge:     8.000000
 Kpoints in:           45 . Kpoints trimmed:           41

siesta: k-grid: Number of k-points = 41
siesta: k-points from Monkhorst-Pack grid
siesta: k-cutoff (effective) =     7.100 Ang
siesta: k-point supercell and displacements
siesta: k-grid:     9     0     0      0.000
siesta: k-grid:     0     9     0      0.000
siesta: k-grid:     0     0     1      0.000

diag: Algorithm                                     = D&C
diag: Used triangular part                          = Lower
diag: Absolute tolerance                            =  0.100E-15
diag: Orthogonalization factor                      =  0.100E-05
diag: Memory factor                                 =  1.0000

superc: Internal auxiliary supercell:     7 x     7 x     1  =      49
superc: Number of atoms, orbitals, and projectors:     98    882   1568


ts: **************************************************************
ts: Save H and S matrices                           =    T
ts: Save DM and EDM matrices                        =    F
ts: Only save the overlap matrix S                  =    F
ts: **************************************************************

************************ Begin: TS CHECKS AND WARNINGS ************************
************************ End: TS CHECKS AND WARNINGS **************************


                     ====================================
                        Single-point calculation
                     ====================================

outcoor: Atomic coordinates (Ang):                          
    0.00000000    0.00000000    0.00000000   1       1  C
    1.42000000    0.00000000    0.00000000   1       2  C

superc: Internal auxiliary supercell:     7 x     7 x     1  =      49
superc: Number of atoms, orbitals, and projectors:     98    882   1568

outcell: Unit cell vectors (Ang):
        2.130000   -1.229756    0.000000
        2.130000    1.229756    0.000000
        0.000000    0.000000   14.200000

outcell: Cell vector modules (Ang)   :    2.459512    2.459512   14.200000
outcell: Cell angles (23,13,12) (deg):     90.0000     90.0000     60.0000
outcell: Cell volume (Ang**3)        :     74.3904
<dSpData1D:S at geom step 0
  <sparsity:sparsity for geom step 0
    nrows_g=18 nrows=18 sparsity=30.6481 nnzs=9930, refcount: 7>
  <dData1D:(new from dSpData1D) n=9930, refcount: 1>
refcount: 1>
new_DM -- step:     1
Initializing Density Matrix...

Attempting to read DM from file... Succeeded...
DM from file:
<dSpData2D:IO-DM: graphene.DM
  <sparsity:IO-DM: graphene.DM
    nrows_g=18 nrows=18 sparsity=30.6481 nnzs=9930, refcount: 1>
  <dData2D:(new from dSpData2D) n=9930 m=1, refcount: 1>
refcount: 1>
DM to be used:
<dSpData2D:Re-structured SpM
  <sparsity:sparsity for geom step 0
    nrows_g=18 nrows=18 sparsity=30.6481 nnzs=9930, refcount: 8>
  <dData2D:(new in restruct) n=9930 m=1, refcount: 1>
refcount: 1>
Note: For starting DM, Qtot, Tr[D*S] =          8.00000000          8.05304026
No. of atoms with KB's overlaping orbs in proc 0. Max # of overlaps:      24     165

InitMesh: MESH = 30 x 30 x 192 = 172800
InitMesh: Mesh cutoff (required, used) =   500.000   505.275 Ry
New grid distribution [1]: sub = 2

stepf: Fermi-Dirac step function

siesta: Program's energy decomposition (eV):
siesta: Ebs     =      -120.205617
siesta: Eions   =       628.555918
siesta: Ena     =       201.267309
siesta: Ekin    =       210.907826
siesta: Enl     =        -2.446650
siesta: Eso     =         0.000000
siesta: Edftu   =         0.000000
siesta: DEna    =         3.691443
siesta: DUscf   =         0.280592
siesta: DUext   =         0.000000
siesta: Ex      =       -83.864924
siesta: Ec      =        -9.202491
siesta: Exc     =       -93.067414
siesta: EbV     =         0.000000
siesta: eta*DQ  =         0.000000
siesta: Emadel  =         0.000000
siesta: Emeta   =         0.000000
siesta: Emolmec =         0.000000
siesta: Ekinion =         0.000000
siesta: Eharris =      -308.324052
siesta: Etot    =      -307.922813
siesta: FreeEng =      -307.922881

        iscf     Eharris(eV)        E_KS(eV)     FreeEng(eV)     dDmax    Ef(eV) dHmax(eV)
   scf:    1     -308.324052     -307.922813     -307.922881  0.010145 -5.468244  0.259785
timer: Routine,Calls,Time,% = IterSCF        1       0.296  12.98
   scf:    2     -307.923509     -307.923223     -307.923291  0.005768 -5.648484  0.047214
   scf:    3     -307.923279     -307.923253     -307.923321  0.001318 -5.623696  0.006941
   scf:    4     -307.923272     -307.923273     -307.923341  0.002680 -5.623700  0.000249
   scf:    5     -307.923270     -307.923272     -307.923340  0.000512 -5.623071  0.002273
   scf:    6     -307.923273     -307.923273     -307.923341  0.000587 -5.623895  0.000164
mix: Pulay -- inversion failed, > SVD [rank/size] 3 / 5
   scf:    7     -307.923273     -307.923273     -307.923341  0.000026 -5.623820  0.000007

SCF Convergence by DM+H criterion
max |DM_out - DM_in|         :     0.0000257351
max |H_out - H_in|      (eV) :     0.0000073734
SCF cycle converged after 7 iterations

Using DM_out to compute the final energy and forces
No. of atoms with KB's overlaping orbs in proc 0. Max # of overlaps:      24     165

siesta: E_KS(eV) =             -307.9233

siesta: E_KS - E_eggbox =      -307.9233

siesta: Atomic forces (eV/Ang):
     1   -0.000383   -0.000000    0.000000
     2    0.000383    0.000000    0.000000
----------------------------------------
   Tot   -0.000000   -0.000000    0.000000
----------------------------------------
   Max    0.000383
   Res    0.000221    sqrt( Sum f_i^2 / 3N )
----------------------------------------
   Max    0.000383    constrained

Stress tensor Voigt[x,y,z,yz,xz,xy] (kbar):      -67.97      -67.99        0.02       -0.00       -0.00        0.00
(Free)E + p*V (eV/cell)     -305.8194
Target enthalpy (eV/cell)     -307.9233

mulliken: Atomic and Orbital Populations:

Species: C                   
Atom  Qatom  Qorb
               2s      2py     2pz     2px     3Pdxy   3Pdyz   3Pdz2   3Pdxz   
               3Pdx2-y2
   1  4.000   0.960   1.016   0.970   1.016   0.008   0.015  -0.007   0.015
              0.008
   2  4.000   0.960   1.016   0.970   1.016   0.008   0.015  -0.007   0.015
              0.008

mulliken: Qtot =        8.000

siesta: Program's energy decomposition (eV):
siesta: Ebs     =      -119.946650
siesta: Eions   =       628.555918
siesta: Ena     =       201.267309
siesta: Ekin    =       211.115710
siesta: Enl     =        -2.480224
siesta: Eso     =         0.000000
siesta: Edftu   =         0.000000
siesta: DEna    =         3.548227
siesta: DUscf   =         0.281284
siesta: DUext   =         0.000000
siesta: Ex      =       -83.898776
siesta: Ec      =        -9.200885
siesta: Exc     =       -93.099661
siesta: EbV     =         0.000000
siesta: eta*DQ  =         0.000000
siesta: Emadel  =         0.000000
siesta: Emeta   =         0.000000
siesta: Emolmec =         0.000000
siesta: Ekinion =         0.000000
siesta: Eharris =      -307.923273
siesta: Etot    =      -307.923273
siesta: FreeEng =      -307.923341

siesta: Final energy (eV):
siesta:  Band Struct. =    -119.946650
siesta:       Kinetic =     211.115710
siesta:       Hartree =    1006.672671
siesta:         Edftu =       0.000000
siesta:       Eso     =       0.000000
siesta:    Ext. field =       0.000000
siesta:         Exch. =     -83.898776
siesta:         Corr. =      -9.200885
siesta:     Bulk bias =       0.000000
siesta:   Exch.-corr. =     -93.099661
siesta:  Ion-electron =   -2223.117216
siesta:       Ion-ion =     790.505224
siesta:       Ekinion =       0.000000
siesta: D3 dispersion =       0.000000
siesta:         Total =    -307.923273
siesta:         Fermi =      -5.623820

siesta: Stress tensor (static) (eV/Ang**3):
siesta:    -0.042425    0.000000   -0.000000
siesta:     0.000000   -0.042435    0.000000
siesta:    -0.000000   -0.000000    0.000012

siesta: Cell volume =         74.390404 Ang**3

siesta: Pressure (static):
siesta:                Solid            Molecule  Units
siesta:           0.00030804          0.00030801  Ry/Bohr**3
siesta:           0.02828282          0.02828039  eV/Ang**3
siesta:          45.31407843         45.31017596  kBar
(Free)E+ p_basis*V_orbitals  =        -307.386729
(Free)Eharris+ p_basis*V_orbitals  =        -307.386729

siesta: Electric dipole (a.u.)  =   -0.000000   -0.000000   -0.000000
siesta: Electric dipole (Debye) =   -0.000000   -0.000000   -0.000000

Hirshfeld Atomic Populations:
Atom #     dQatom  Atom pop  Species
     1    0.00000   4.00000  C
     2    0.00000   4.00000  C

Voronoi Atomic Populations:
Atom #     dQatom  Atom pop  Species
     1    0.00000   4.00000  C
     2    0.00000   4.00000  C
 

dhscf: Vacuum level (max, mean) =    0.157434    0.156305 eV

cite: Please see "graphene.bib" for an exhaustive BiBTeX file.
cite: Please clearly indicate Siesta version in published work: 5.0.1
cite: This calculation has made use of the following articles
cite: which are encouraged to be cited in a published work.
        Primary SIESTA paper
          DOI: www.doi.org/10.1088/0953-8984/14/11/302


timer: Elapsed wall time (sec) =       2.883
timer: CPU execution times (sec):

Routine            Calls   Time/call    Tot.time        %
siesta                 1       4.855       4.855   100.00
Setup                  1       1.320       1.320    27.18
bands                  1       0.000       0.000     0.00
KSV_init               1       0.000       0.000     0.00
IterGeom               1       3.207       3.207    66.05
geom_init              1       0.665       0.665    13.70
state_init             1       0.036       0.036     0.75
hsparse                1       0.001       0.001     0.01
overlap                1       0.033       0.033     0.68
Setup_H0               1       0.460       0.460     9.47
naefs                  2       0.000       0.000     0.01
MolMec                 2       0.000       0.000     0.00
kinefsm                2       0.016       0.032     0.66
nlefsm                 2       0.096       0.193     3.97
DHSCF_Init             1       0.270       0.270     5.57
DHSCF1                 1       0.026       0.026     0.54
INITMESH               1       0.000       0.000     0.00
DHSCF2                 1       0.244       0.244     5.03
REMESH                 1       0.015       0.015     0.30
REORD                 29       0.000       0.007     0.14
PHION                  1       0.202       0.202     4.17
COMM_BSC              44       0.000       0.013     0.26
POISON                11       0.007       0.077     1.59
fft                   22       0.002       0.050     1.04
setup_H                8       0.241       1.931    39.78
DHSCF                 10       0.268       2.680    55.20
DHSCF3                10       0.241       2.409    49.61
rhoofd                10       0.120       1.202    24.76
XC                    10       0.047       0.474     9.75
GXC-CellXC            10       0.046       0.460     9.47
gridxc@cellXC         10       0.046       0.460     9.47
vmat                   9       0.045       0.409     8.43
IterSCF                7       0.296       2.074    42.71
compute_dm             7       0.044       0.308     6.35
diagon                 7       0.044       0.308     6.35
c-eigval             287       0.000       0.099     2.04
c-buildHS            287       0.000       0.082     1.69
cdiag                574       0.000       0.047     0.97
cdiag1               574       0.000       0.002     0.05
cdiag2               574       0.000       0.007     0.14
cdiag3               574       0.000       0.030     0.62
c-eigvec             287       0.000       0.112     2.31
cdiag4               287       0.000       0.001     0.01
c-buildD             287       0.000       0.095     1.96
MIXER                  6       0.000       0.001     0.02
PostSCF                1       0.468       0.468     9.64
DHSCF4                 1       0.271       0.271     5.59
dfscf                  1       0.246       0.246     5.07
overfsm                1       0.002       0.002     0.04
writeHSX               1       0.000       0.000     0.00
state_analysis         1       0.000       0.000     0.00
siesta_move            1       0.000       0.000     0.00
Analysis               1       0.327       0.327     6.73
optical                1       0.000       0.000     0.00
partial-charges        1       0.205       0.205     4.22
  

>> End of run:   5-SEP-2024  16:08:02
Job completed
